Title: * spicenetlist
Date: Tue Dec 04 00:54:18  2018
Plotname: Transient Analysis
Flags: real
No. Variables: 4
No. Points: 519
Variables:
	0	time	time
	1	v(n_1)	voltage
	2	v(n_2)	voltage
	3	i(i(v_v1))	current
Values:
 0	0.000000000000000e+000
	0.000000000000000e+000
	2.373538428031939e-031
	4.747076856063878e-031

 1	2.000000000000000e-004
	8.162767538810739e-001
	7.940372198730580e-001
	-4.447906801603185e-002

 2	2.060077034113694e-004
	8.407627534885377e-001
	8.061332444463554e-001
	-6.925901808436463e-002

 3	2.180231102341081e-004
	8.897256806306751e-001
	8.297988597527507e-001
	-1.198536417558489e-001

 4	2.420539238795855e-004
	9.876128050501724e-001
	8.673829519457207e-001
	-2.404597062089033e-001

 5	2.894380457194734e-004
	1.180457089758749e+000
	9.147538399927443e-001
	-5.314064995320094e-001

 6	3.425361776290618e-004
	1.396243460673936e+000
	9.522189878675437e-001
	-8.880489456127838e-001

 7	4.487324414482386e-004
	1.826590717180028e+000
	1.009532089395176e+000
	-1.634117255569704e+000

 8	6.611249690865922e-004
	2.680709790753079e+000
	1.101461398196737e+000
	-3.158496785112685e+000

 9	1.085910024363299e-003
	4.349407529040262e+000
	1.256816522992572e+000
	-6.185182012095378e+000

 10	1.935480134916714e-003
	7.426474272775979e+000
	1.520163329436597e+000
	-1.181262188667876e+001

 11	3.634620356023543e-003
	1.182225654448525e+001
	1.879858370552275e+000
	-1.988479634786594e+001

 12	6.107101460100704e-003
	1.222159519507190e+001
	1.912879159088132e+000
	-2.061743207196752e+001

 13	9.807344307449603e-003
	7.863391262964603e-001
	7.916846596593281e-001
	1.069106672573561e-002

 14	1.173108745391201e-002
	-6.726503763178664e+000
	-6.753317592753137e+000
	-5.362765914894752e-002

 15	1.351780550455622e-002
	-1.161591712988475e+001
	-1.158910327793700e+001
	5.362770389550420e-002

 16	1.592925624083746e-002
	-1.244995596477325e+001
	-1.247676981280130e+001
	-5.362769605608619e-002

 17	2.075215771339993e-002
	3.043357802493656e+000
	1.137281646502110e+000
	-3.812152311983093e+000

 18	2.873962918524513e-002
	5.013989192172984e+000
	1.314513278739659e+000
	-7.398951826866648e+000

 19	3.763214001056604e-002
	-8.802974440689098e+000
	-8.773480069894552e+000
	5.898874158909351e-002

 20	5.541716166120785e-002
	-1.288851917123785e+001
	-1.291801353959997e+001
	-5.898873672424543e-002

 21	7.219196444496680e-002
	-8.261198960804041e+000
	-8.231704593866846e+000
	5.898873387438997e-002

 22	9.219196444496680e-002
	-8.261198960804038e+000
	-8.290693327126279e+000
	-5.898873264448312e-002

 23	1.121919644449668e-001
	-8.261198960804071e+000
	-8.231704594269598e+000
	5.898873306894714e-002

 24	1.321919644449668e-001
	-8.261198960804070e+000
	-8.290693327112216e+000
	-5.898873261629234e-002

 25	1.521919644449668e-001
	-8.261198960804068e+000
	-8.231704594320966e+000
	5.898873296620266e-002

 26	1.721919644449668e-001
	-8.261198960804064e+000
	-8.290693327060838e+000
	-5.898873251354786e-002

 27	1.921919644449668e-001
	-8.261198960804205e+000
	-8.231704594372474e+000
	5.898873286346174e-002

 28	2.121919644449669e-001
	-8.261198960804130e+000
	-8.290693327009533e+000
	-5.898873241080693e-002

 29	2.321919644449669e-001
	-8.261198960804343e+000
	-8.231704594423984e+000
	5.898873276071726e-002

 30	2.521919644449669e-001
	-8.261198960804268e+000
	-8.290693326958300e+000
	-5.898873230806245e-002

 31	2.721919644449669e-001
	-8.261198960804480e+000
	-8.231704594475492e+000
	5.898873265797633e-002

 32	2.921919644449669e-001
	-8.261198960804407e+000
	-8.290693326907068e+000
	-5.898873220532153e-002

 33	3.121919644449669e-001
	-8.261198960804476e+000
	-8.231704594526860e+000
	5.898873255523185e-002

 34	3.321919644449670e-001
	-8.261198960804544e+000
	-8.290693326855832e+000
	-5.898873210257705e-002

 35	3.521919644449670e-001
	-8.261198960804469e+000
	-8.231704594578224e+000
	5.898873245249092e-002

 36	3.721919644449670e-001
	-8.261198960804682e+000
	-8.290693326804600e+000
	-5.898873199983612e-002

 37	3.921919644449670e-001
	-8.261198960804752e+000
	-8.231704594629878e+000
	5.898873234974644e-002

 38	4.121919644449670e-001
	-8.261198960804819e+000
	-8.290693326753365e+000
	-5.898873189709164e-002

 39	4.321919644449671e-001
	-8.261198960804602e+000
	-8.231704594681100e+000
	5.898873224700552e-002

 40	4.521919644449671e-001
	-8.261198960804958e+000
	-8.290693326702133e+000
	-5.898873179435071e-002

 41	4.721919644449671e-001
	-8.261198960805025e+000
	-8.231704594732895e+000
	5.898873214426104e-002

 42	4.921919644449671e-001
	-8.261198960804808e+000
	-8.290693326650612e+000
	-5.898873169160623e-002

 43	5.121919644449671e-001
	-8.261198960804592e+000
	-8.231704594783832e+000
	5.898873204152011e-002

 44	5.321919644449671e-001
	-8.261198960804947e+000
	-8.290693326599380e+000
	-5.898873158886531e-002

 45	5.521919644449671e-001
	-8.261198960805016e+000
	-8.231704594835628e+000
	5.898873193877563e-002

 46	5.721919644449671e-001
	-8.261198960804800e+000
	-8.290693326547860e+000
	-5.898873148612083e-002

 47	5.921919644449671e-001
	-8.261198960805153e+000
	-8.231704594887136e+000
	5.898873183603470e-002

 48	6.121919644449672e-001
	-8.261198960805224e+000
	-8.290693326496914e+000
	-5.898873138337990e-002

 49	6.321919644449672e-001
	-8.261198960805292e+000
	-8.231704594938647e+000
	5.898873173329022e-002

 50	6.521919644449672e-001
	-8.261198960805075e+000
	-8.290693326445393e+000
	-5.898873128063542e-002

 51	6.721919644449672e-001
	-8.261198960805144e+000
	-8.231704594989870e+000
	5.898873163054930e-002

 52	6.921919644449672e-001
	-8.261198960805213e+000
	-8.290693326394161e+000
	-5.898873117789449e-002

 53	7.121919644449672e-001
	-8.261198960805567e+000
	-8.231704595041665e+000
	5.898873152780482e-002

 54	7.321919644449673e-001
	-8.261198960805636e+000
	-8.290693326343211e+000
	-5.898873107515001e-002

 55	7.521919644449673e-001
	-8.261198960805706e+000
	-8.231704595093174e+000
	5.898873142506389e-002

 56	7.721919644449673e-001
	-8.261198960805489e+000
	-8.290693326291693e+000
	-5.898873097240909e-002

 57	7.921919644449673e-001
	-8.261198960805556e+000
	-8.231704595144397e+000
	5.898873132231941e-002

 58	8.121919644449673e-001
	-8.261198960805626e+000
	-8.290693326240458e+000
	-5.898873086966461e-002

 59	8.321919644449674e-001
	-8.261198960805695e+000
	-8.231704595195906e+000
	5.898873121957848e-002

 60	8.521919644449674e-001
	-8.261198960805478e+000
	-8.290693326188940e+000
	-5.898873076692368e-002

 61	8.721919644449674e-001
	-8.261198960805832e+000
	-8.231704595247415e+000
	5.898873111683400e-002

 62	8.921919644449674e-001
	-8.261198960806187e+000
	-8.290693326138277e+000
	-5.898873066417920e-002

 63	9.121919644449674e-001
	-8.261198960805970e+000
	-8.231704595298924e+000
	5.898873101409308e-002

 64	9.321919644449674e-001
	-8.261198960805753e+000
	-8.290693326086473e+000
	-5.898873056143827e-002

 65	9.521919644449675e-001
	-8.261198960806109e+000
	-8.231704595350434e+000
	5.898873091134860e-002

 66	9.721919644449675e-001
	-8.261198960805892e+000
	-8.290693326035239e+000
	-5.898873045869379e-002

 67	9.921919644449675e-001
	-8.261198960806247e+000
	-8.231704595401943e+000
	5.898873080860767e-002

 68	1.012191964444968e+000
	-8.261198960806031e+000
	-8.290693325984007e+000
	-5.898873035595287e-002

 69	1.032191964444968e+000
	-8.261198960806384e+000
	-8.231704595453453e+000
	5.898873070586319e-002

 70	1.052191964444968e+000
	-8.261198960806167e+000
	-8.290693325932772e+000
	-5.898873025320839e-002

 71	1.072191964444968e+000
	-8.261198960806521e+000
	-8.231704595504960e+000
	5.898873060312226e-002

 72	1.092191964444968e+000
	-8.261198960806304e+000
	-8.290693325881538e+000
	-5.898873015046746e-002

 73	1.112191964444968e+000
	-8.261198960806659e+000
	-8.231704595556471e+000
	5.898873050037778e-002

 74	1.132191964444968e+000
	-8.261198960806443e+000
	-8.290693325830304e+000
	-5.898873004772298e-002

 75	1.152191964444968e+000
	-8.261198960806226e+000
	-8.231704595607408e+000
	5.898873039763686e-002

 76	1.172191964444968e+000
	-8.261198960806579e+000
	-8.290693325779071e+000
	-5.898872994498206e-002

 77	1.192191964444968e+000
	-8.261198960806363e+000
	-8.231704595658917e+000
	5.898873029489238e-002

 78	1.212191964444968e+000
	-8.261198960806718e+000
	-8.290693325727837e+000
	-5.898872984223758e-002

 79	1.232191964444968e+000
	-8.261198960807072e+000
	-8.231704595710996e+000
	5.898873019215145e-002

 80	1.252191964444968e+000
	-8.261198960806855e+000
	-8.290693325676603e+000
	-5.898872973949665e-002

 81	1.272191964444968e+000
	-8.261198960806640e+000
	-8.231704595761936e+000
	5.898873008940697e-002

 82	1.292191964444968e+000
	-8.261198960807564e+000
	-8.290693325625940e+000
	-5.898872963675217e-002

 83	1.312191964444968e+000
	-8.261198960807349e+000
	-8.231704595814016e+000
	5.898872998666604e-002

 84	1.332191964444968e+000
	-8.261198960807132e+000
	-8.290693325574138e+000
	-5.898872953401124e-002

 85	1.352191964444968e+000
	-8.261198960807485e+000
	-8.231704595865525e+000
	5.898872988392157e-002

 86	1.372191964444968e+000
	-8.261198960807269e+000
	-8.290693325522902e+000
	-5.898872943126676e-002

 87	1.392191964444968e+000
	-8.261198960807052e+000
	-8.231704595916462e+000
	5.898872978118064e-002

 88	1.412191964444968e+000
	-8.261198960807407e+000
	-8.290693325471670e+000
	-5.898872932852584e-002

 89	1.432191964444968e+000
	-8.261198960807191e+000
	-8.231704595967972e+000
	5.898872967843616e-002

 90	1.452191964444968e+000
	-8.261198960807544e+000
	-8.290693325420435e+000
	-5.898872922578136e-002

 91	1.472191964444968e+000
	-8.261198960807327e+000
	-8.231704596019480e+000
	5.898872957569523e-002

 92	1.492191964444968e+000
	-8.261198960807111e+000
	-8.290693325368631e+000
	-5.898872912304043e-002

 93	1.512191964444968e+000
	-8.261198960807466e+000
	-8.231704596070991e+000
	5.898872947295075e-002

 94	1.532191964444968e+000
	-8.261198960807249e+000
	-8.290693325317397e+000
	-5.898872902029595e-002

 95	1.552191964444968e+000
	-8.261198960807032e+000
	-8.231704596121928e+000
	5.898872937020983e-002

 96	1.572191964444968e+000
	-8.261198960807386e+000
	-8.290693325266163e+000
	-5.898872891755502e-002

 97	1.592191964444968e+000
	-8.261198960807171e+000
	-8.231704596173438e+000
	5.898872926746535e-002

 98	1.612191964444968e+000
	-8.261198960808095e+000
	-8.290693325215500e+000
	-5.898872881481054e-002

 99	1.632191964444968e+000
	-8.261198960808448e+000
	-8.231704596226086e+000
	5.898872916472442e-002

 100	1.652191964444968e+000
	-8.261198960808233e+000
	-8.290693325164266e+000
	-5.898872871206606e-002

 101	1.672191964444968e+000
	-8.261198960808017e+000
	-8.231704596277027e+000
	5.898872906197994e-002

 102	1.692191964444968e+000
	-8.261198960807802e+000
	-8.290693325112464e+000
	-5.898872860932514e-002

 103	1.712191964444968e+000
	-8.261198960808725e+000
	-8.231704596329106e+000
	5.898872895923901e-002

 104	1.732191964444968e+000
	-8.261198960808509e+000
	-8.290693325061799e+000
	-5.898872850658066e-002

 105	1.752191964444968e+000
	-8.261198960808292e+000
	-8.231704596380045e+000
	5.898872885649453e-002

 106	1.772191964444968e+000
	-8.261198960808075e+000
	-8.290693325009995e+000
	-5.898872840383973e-002

 107	1.792191964444968e+000
	-8.261198960807858e+000
	-8.231704596430982e+000
	5.898872875375361e-002

 108	1.812191964444968e+000
	-8.261198960807642e+000
	-8.290693324958189e+000
	-5.898872830109525e-002

 109	1.832191964444968e+000
	-8.261198960808567e+000
	-8.231704596483063e+000
	5.898872865100913e-002

 110	1.852191964444968e+000
	-8.261198960808351e+000
	-8.290693324907528e+000
	-5.898872819835432e-002

 111	1.872191964444968e+000
	-8.261198960808134e+000
	-8.231704596534000e+000
	5.898872854826820e-002

 112	1.892191964444968e+000
	-8.261198960807917e+000
	-8.290693324855722e+000
	-5.898872809560984e-002

 113	1.912191964444968e+000
	-8.261198960808843e+000
	-8.231704596586081e+000
	5.898872844552372e-002

 114	1.932191964444968e+000
	-8.261198960808626e+000
	-8.290693324805060e+000
	-5.898872799286892e-002

 115	1.952191964444968e+000
	-8.261198960809551e+000
	-8.231704596638160e+000
	5.898872834278279e-002

 116	1.972191964444968e+000
	-8.261198960809335e+000
	-8.290693324754397e+000
	-5.898872789012444e-002

 117	1.992191964444968e+000
	-8.261198960809118e+000
	-8.231704596689099e+000
	5.898872824003831e-002

 118	2.012191964444968e+000
	-8.261198960808903e+000
	-8.290693324702595e+000
	-5.898872778738351e-002

 119	2.032191964444968e+000
	-8.261198960808686e+000
	-8.231704596740038e+000
	5.898872813729739e-002

 120	2.052191964444968e+000
	-8.261198960808470e+000
	-8.290693324650789e+000
	-5.898872768463903e-002

 121	2.072191964444968e+000
	-8.261198960809395e+000
	-8.231704596792119e+000
	5.898872803455291e-002

 122	2.092191964444969e+000
	-8.261198960809178e+000
	-8.290693324600127e+000
	-5.898872758189810e-002

 123	2.112191964444969e+000
	-8.261198960808962e+000
	-8.231704596843056e+000
	5.898872793181198e-002

 124	2.132191964444969e+000
	-8.261198960808745e+000
	-8.290693324548322e+000
	-5.898872747915362e-002

 125	2.152191964444969e+000
	-8.261198960808528e+000
	-8.231704596893994e+000
	5.898872782906750e-002

 126	2.172191964444969e+000
	-8.261198960809454e+000
	-8.290693324497660e+000
	-5.898872737641270e-002

 127	2.192191964444969e+000
	-8.261198960809237e+000
	-8.231704596946074e+000
	5.898872772632657e-002

 128	2.212191964444969e+000
	-8.261198960809020e+000
	-8.290693324445854e+000
	-5.898872727366822e-002

 129	2.232191964444969e+000
	-8.261198960808803e+000
	-8.231704596997012e+000
	5.898872762358209e-002

 130	2.252191964444969e+000
	-8.261198960809727e+000
	-8.290693324395191e+000
	-5.898872717092729e-002

 131	2.272191964444969e+000
	-8.261198960809510e+000
	-8.231704597049090e+000
	5.898872752084117e-002

 132	2.292191964444969e+000
	-8.261198960810436e+000
	-8.290693324344527e+000
	-5.898872706818281e-002

 133	2.312191964444969e+000
	-8.261198960810219e+000
	-8.231704597101171e+000
	5.898872741809669e-002

 134	2.332191964444969e+000
	-8.261198960810003e+000
	-8.290693324292723e+000
	-5.898872696544188e-002

 135	2.352191964444969e+000
	-8.261198960809788e+000
	-8.231704597152110e+000
	5.898872731535576e-002

 136	2.372191964444969e+000
	-8.261198960809571e+000
	-8.290693324240920e+000
	-5.898872686269741e-002

 137	2.392191964444969e+000
	-8.261198960809354e+000
	-8.231704597203049e+000
	5.898872721261128e-002

 138	2.412191964444969e+000
	-8.261198960810280e+000
	-8.290693324190258e+000
	-5.898872675995648e-002

 139	2.432191964444969e+000
	-8.261198960810063e+000
	-8.231704597255128e+000
	5.898872710987035e-002

 140	2.452191964444969e+000
	-8.261198960809846e+000
	-8.290693324138452e+000
	-5.898872665721200e-002

 141	2.472191964444969e+000
	-8.261198960809630e+000
	-8.231704597306067e+000
	5.898872700712587e-002

 142	2.492191964444969e+000
	-8.261198960809413e+000
	-8.290693324086648e+000
	-5.898872655447107e-002

 143	2.512191964444969e+000
	-8.261198960810338e+000
	-8.231704597358146e+000
	5.898872690438495e-002

 144	2.532191964444969e+000
	-8.261198960810122e+000
	-8.290693324035985e+000
	-5.898872645172659e-002

 145	2.552191964444969e+000
	-8.261198960811047e+000
	-8.231704597410227e+000
	5.898872680164047e-002

 146	2.572191964444969e+000
	-8.261198960810830e+000
	-8.290693323985323e+000
	-5.898872634898567e-002

 147	2.592191964444969e+000
	-8.261198960810614e+000
	-8.231704597461164e+000
	5.898872669889954e-002

 148	2.612191964444969e+000
	-8.261198960810397e+000
	-8.290693323933517e+000
	-5.898872624624119e-002

 149	2.632191964444969e+000
	-8.261198960810180e+000
	-8.231704597512103e+000
	5.898872659615506e-002

 150	2.652191964444969e+000
	-8.261198960811106e+000
	-8.290693323882856e+000
	-5.898872614350026e-002

 151	2.672191964444969e+000
	-8.261198960810889e+000
	-8.231704597564182e+000
	5.898872649341413e-002

 152	2.692191964444969e+000
	-8.261198960810674e+000
	-8.290693323831052e+000
	-5.898872604075578e-002

 153	2.712191964444969e+000
	-8.261198960810457e+000
	-8.231704597615122e+000
	5.898872639066966e-002

 154	2.732191964444969e+000
	-8.261198960810241e+000
	-8.290693323779248e+000
	-5.898872593801485e-002

 155	2.752191964444969e+000
	-8.261198960811166e+000
	-8.231704597667202e+000
	5.898872628792873e-002

 156	2.772191964444969e+000
	-8.261198960810949e+000
	-8.290693323728585e+000
	-5.898872583527037e-002

 157	2.792191964444969e+000
	-8.261198960810733e+000
	-8.231704597718140e+000
	5.898872618518425e-002

 158	2.812191964444969e+000
	-8.261198960810516e+000
	-8.290693323676781e+000
	-5.898872573252945e-002

 159	2.832191964444969e+000
	-8.261198960810299e+000
	-8.231704597769078e+000
	5.898872608244332e-002

 160	2.852191964444969e+000
	-8.261198960811223e+000
	-8.290693323626115e+000
	-5.898872562978497e-002

 161	2.872191964444969e+000
	-8.261198960811008e+000
	-8.231704597821159e+000
	5.898872597969884e-002

 162	2.892191964444969e+000
	-8.261198960810791e+000
	-8.290693323574313e+000
	-5.898872552704404e-002

 163	2.912191964444969e+000
	-8.261198960810575e+000
	-8.231704597872096e+000
	5.898872587695792e-002

 164	2.932191964444969e+000
	-8.261198960810358e+000
	-8.290693323522508e+000
	-5.898872542429956e-002

 165	2.952191964444969e+000
	-8.261198960810141e+000
	-8.231704597923034e+000
	5.898872577421344e-002

 166	2.972191964444969e+000
	-8.261198960811065e+000
	-8.290693323471844e+000
	-5.898872532155863e-002

 167	2.992191964444969e+000
	-8.261198960810850e+000
	-8.231704597975114e+000
	5.898872567147251e-002

 168	3.012191964444969e+000
	-8.261198960810635e+000
	-8.290693323420042e+000
	-5.898872521881415e-002

 169	3.032191964444969e+000
	-8.261198960810418e+000
	-8.231704598026054e+000
	5.898872556872803e-002

 170	3.052191964444969e+000
	-8.261198960812482e+000
	-8.290693323370519e+000
	-5.898872511607323e-002

 171	3.072191964444969e+000
	-8.261198960812266e+000
	-8.231704598079272e+000
	5.898872546598710e-002

 172	3.092191964444969e+000
	-8.261198960812051e+000
	-8.290693323318715e+000
	-5.898872501332875e-002

 173	3.112191964444969e+000
	-8.261198960812974e+000
	-8.231704598131353e+000
	5.898872536324262e-002

 174	3.132191964444969e+000
	-8.261198960812759e+000
	-8.290693323268053e+000
	-5.898872491058782e-002

 175	3.152191964444969e+000
	-8.261198960812543e+000
	-8.231704598182292e+000
	5.898872526050170e-002

 176	3.172191964444969e+000
	-8.261198960812326e+000
	-8.290693323216248e+000
	-5.898872480784334e-002

 177	3.192191964444969e+000
	-8.261198960812109e+000
	-8.231704598233231e+000
	5.898872515775722e-002

 178	3.212191964444970e+000
	-8.261198960811893e+000
	-8.290693323164444e+000
	-5.898872470510241e-002

 179	3.232191964444970e+000
	-8.261198960812818e+000
	-8.231704598285310e+000
	5.898872505501629e-002

 180	3.252191964444970e+000
	-8.261198960812601e+000
	-8.290693323113780e+000
	-5.898872460235793e-002

 181	3.272191964444970e+000
	-8.261198960813525e+000
	-8.231704598337389e+000
	5.898872495227181e-002

 182	3.292191964444970e+000
	-8.261198960813308e+000
	-8.290693323063117e+000
	-5.898872449961701e-002

 183	3.312191964444970e+000
	-8.261198960813093e+000
	-8.231704598388328e+000
	5.898872484953088e-002

 184	3.332191964444970e+000
	-8.261198960812877e+000
	-8.290693323011313e+000
	-5.898872439687253e-002

 185	3.352191964444970e+000
	-8.261198960812660e+000
	-8.231704598439267e+000
	5.898872474678640e-002

 186	3.372191964444970e+000
	-8.261198960812443e+000
	-8.290693322959509e+000
	-5.898872429413160e-002

 187	3.392191964444970e+000
	-8.261198960812228e+000
	-8.231704598490206e+000
	5.898872464404548e-002

 188	3.412191964444970e+000
	-8.261198960812012e+000
	-8.290693322907705e+000
	-5.898872419138712e-002

 189	3.432191964444970e+000
	-8.261198960811795e+000
	-8.231704598541144e+000
	5.898872454130100e-002

 190	3.452191964444970e+000
	-8.261198960811578e+000
	-8.290693322855901e+000
	-5.898872408864619e-002

 191	3.472191964444970e+000
	-8.261198960811361e+000
	-8.231704598592081e+000
	5.898872443856007e-002

 192	3.492191964444970e+000
	-8.261198960813427e+000
	-8.290693322806378e+000
	-5.898872398590171e-002

 193	3.512191964444970e+000
	-8.261198960813211e+000
	-8.231704598645303e+000
	5.898872433581559e-002

 194	3.532191964444970e+000
	-8.261198960812994e+000
	-8.290693322754574e+000
	-5.898872388316079e-002

 195	3.552191964444970e+000
	-8.261198960812777e+000
	-8.231704598696240e+000
	5.898872423307466e-002

 196	3.572191964444970e+000
	-8.261198960812560e+000
	-8.290693322702769e+000
	-5.898872378041631e-002

 197	3.592191964444970e+000
	-8.261198960812346e+000
	-8.231704598747180e+000
	5.898872413033018e-002

 198	3.612191964444970e+000
	-8.261198960812129e+000
	-8.290693322650967e+000
	-5.898872367767538e-002

 199	3.632191964444970e+000
	-8.261198960811912e+000
	-8.231704598798117e+000
	5.898872402758926e-002

 200	3.652191964444970e+000
	-8.261198960811697e+000
	-8.290693322599163e+000
	-5.898872357493090e-002

 201	3.672191964444970e+000
	-8.261198960813761e+000
	-8.231704598851339e+000
	5.898872392484478e-002

 202	3.692191964444970e+000
	-8.261198960813545e+000
	-8.290693322549640e+000
	-5.898872347218997e-002

 203	3.712191964444970e+000
	-8.261198960813328e+000
	-8.231704598902276e+000
	5.898872382210385e-002

 204	3.732191964444970e+000
	-8.261198960813113e+000
	-8.290693322497836e+000
	-5.898872336944550e-002

 205	3.752191964444970e+000
	-8.261198960815179e+000
	-8.231704598955499e+000
	5.898872371935937e-002

 206	3.772191964444970e+000
	-8.261198960814962e+000
	-8.290693322448314e+000
	-5.898872326670457e-002

 207	3.792191964444970e+000
	-8.261198960814745e+000
	-8.231704599006436e+000
	5.898872361661844e-002

 208	3.812191964444970e+000
	-8.261198960814529e+000
	-8.290693322396509e+000
	-5.898872316396009e-002

 209	3.832191964444970e+000
	-8.261198960814314e+000
	-8.231704599057377e+000
	5.898872351387396e-002

 210	3.852191964444970e+000
	-8.261198960814097e+000
	-8.290693322344707e+000
	-5.898872306121916e-002

 211	3.872191964444970e+000
	-8.261198960813880e+000
	-8.231704599108314e+000
	5.898872341113304e-002

 212	3.892191964444970e+000
	-8.261198960813664e+000
	-8.290693322292901e+000
	-5.898872295847468e-002

 213	3.912191964444970e+000
	-8.261198960813447e+000
	-8.231704599159253e+000
	5.898872330838856e-002

 214	3.932191964444970e+000
	-8.261198960813230e+000
	-8.290693322241097e+000
	-5.898872285573376e-002

 215	3.952191964444970e+000
	-8.261198960815296e+000
	-8.231704599212472e+000
	5.898872320564763e-002

 216	3.972191964444970e+000
	-8.261198960815079e+000
	-8.290693322191574e+000
	-5.898872275298928e-002

 217	3.992191964444970e+000
	-8.261198960814863e+000
	-8.231704599263411e+000
	5.898872310290315e-002

 218	4.012191964444970e+000
	-8.261198960812365e+000
	-8.290693322137489e+000
	-5.898872265024835e-002

 219	4.032191964444969e+000
	-8.261198960809866e+000
	-8.231704599309785e+000
	5.898872300016222e-002

 220	4.052191964444969e+000
	-8.261198960809649e+000
	-8.290693322083401e+000
	-5.898872254750387e-002

 221	4.072191964444968e+000
	-8.261198960809434e+000
	-8.231704599360725e+000
	5.898872289741775e-002

 222	4.092191964444968e+000
	-8.261198960806935e+000
	-8.290693322029316e+000
	-5.898872244476294e-002

 223	4.112191964444968e+000
	-8.261198960806718e+000
	-8.231704599409380e+000
	5.898872279467682e-002

 224	4.132191964444967e+000
	-8.261198960804220e+000
	-8.290693321975230e+000
	-5.898872234201846e-002

 225	4.152191964444967e+000
	-8.261198960804004e+000
	-8.231704599458038e+000
	5.898872269193234e-002

 226	4.172191964444966e+000
	-8.261198960801504e+000
	-8.290693321921143e+000
	-5.898872223927754e-002

 227	4.192191964444966e+000
	-8.261198960799005e+000
	-8.231704599504409e+000
	5.898872258919141e-002

 228	4.212191964444966e+000
	-8.261198960798788e+000
	-8.290693321867055e+000
	-5.898872213653306e-002

 229	4.232191964444965e+000
	-8.261198960798573e+000
	-8.231704599555350e+000
	5.898872248644693e-002

 230	4.252191964444965e+000
	-8.261198960796074e+000
	-8.290693321812970e+000
	-5.898872203379213e-002

 231	4.272191964444964e+000
	-8.261198960795857e+000
	-8.231704599604004e+000
	5.898872238370601e-002

 232	4.292191964444964e+000
	-8.261198960793360e+000
	-8.290693321758884e+000
	-5.898872193104765e-002

 233	4.312191964444963e+000
	-8.261198960793143e+000
	-8.231704599652662e+000
	5.898872228096153e-002

 234	4.332191964444963e+000
	-8.261198960790644e+000
	-8.290693321704797e+000
	-5.898872182830672e-002

 235	4.352191964444963e+000
	-8.261198960788144e+000
	-8.231704599699034e+000
	5.898872217822060e-002

 236	4.372191964444962e+000
	-8.261198960787928e+000
	-8.290693321650709e+000
	-5.898872172556224e-002

 237	4.392191964444962e+000
	-8.261198960787711e+000
	-8.231704599749973e+000
	5.898872207547612e-002

 238	4.412191964444961e+000
	-8.261198960785213e+000
	-8.290693321596624e+000
	-5.898872162282132e-002

 239	4.432191964444961e+000
	-8.261198960784997e+000
	-8.231704599798629e+000
	5.898872197273519e-002

 240	4.452191964444960e+000
	-8.261198960782499e+000
	-8.290693321542538e+000
	-5.898872152007684e-002

 241	4.472191964444960e+000
	-8.261198960782282e+000
	-8.231704599847287e+000
	5.898872186999071e-002

 242	4.492191964444960e+000
	-8.261198960779783e+000
	-8.290693321488451e+000
	-5.898872141733591e-002

 243	4.512191964444959e+000
	-8.261198960777284e+000
	-8.231704599893659e+000
	5.898872176724979e-002

 244	4.532191964444959e+000
	-8.261198960779352e+000
	-8.290693321436647e+000
	-5.898872131459143e-002

 245	4.552191964444958e+000
	-8.261198960776852e+000
	-8.231704599944600e+000
	5.898872166450531e-002

 246	4.572191964444958e+000
	-8.261198960774353e+000
	-8.290693321380278e+000
	-5.898872121185050e-002

 247	4.592191964444957e+000
	-8.261198960774136e+000
	-8.231704599993254e+000
	5.898872156176438e-002

 248	4.612191964444957e+000
	-8.261198960773919e+000
	-8.290693321328472e+000
	-5.898872110910602e-002

 249	4.632191964444957e+000
	-8.261198960771422e+000
	-8.231704600041912e+000
	5.898872145901990e-002

 250	4.652191964444956e+000
	-8.261198960768923e+000
	-8.290693321272105e+000
	-5.898872100636510e-002

 251	4.672191964444956e+000
	-8.261198960766425e+000
	-8.231704600088285e+000
	5.898872135627897e-002

 252	4.692191964444955e+000
	-8.261198960768491e+000
	-8.290693321220301e+000
	-5.898872090362062e-002

 253	4.712191964444955e+000
	-8.261198960765992e+000
	-8.231704600139224e+000
	5.898872125353449e-002

 254	4.732191964444954e+000
	-8.261198960763494e+000
	-8.290693321163934e+000
	-5.898872080087969e-002

 255	4.752191964444954e+000
	-8.261198960763277e+000
	-8.231704600187880e+000
	5.898872115079357e-002

 256	4.772191964444954e+000
	-8.261198960763061e+000
	-8.290693321112128e+000
	-5.898872069813521e-002

 257	4.792191964444953e+000
	-8.261198960760561e+000
	-8.231704600236537e+000
	5.898872104804909e-002

 258	4.812191964444953e+000
	-8.261198960758062e+000
	-8.290693321055759e+000
	-5.898872059539428e-002

 259	4.832191964444952e+000
	-8.261198960755564e+000
	-8.231704600282910e+000
	5.898872094530816e-002

 260	4.852191964444952e+000
	-8.261198960757628e+000
	-8.290693321003953e+000
	-5.898872049264980e-002

 261	4.872191964444951e+000
	-8.261198960755131e+000
	-8.231704600333849e+000
	5.898872084256368e-002

 262	4.892191964444951e+000
	-8.261198960752633e+000
	-8.290693320947588e+000
	-5.898872038990888e-002

 263	4.912191964444951e+000
	-8.261198960752417e+000
	-8.231704600382505e+000
	5.898872073982275e-002

 264	4.932191964444950e+000
	-8.261198960752200e+000
	-8.290693320895782e+000
	-5.898872028716440e-002

 265	4.952191964444950e+000
	-8.261198960749701e+000
	-8.231704600431161e+000
	5.898872063707827e-002

 266	4.972191964444949e+000
	-8.261198960747201e+000
	-8.290693320839413e+000
	-5.898872018442347e-002

 267	4.992191964444949e+000
	-8.261198960746985e+000
	-8.231704600479816e+000
	5.898872053433735e-002

 268	5.012191964444948e+000
	-8.261198960746768e+000
	-8.290693320787607e+000
	-5.898872008167899e-002

 269	5.032191964444948e+000
	-8.261198960744270e+000
	-8.231704600528474e+000
	5.898872043159287e-002

 270	5.052191964444948e+000
	-8.261198960741773e+000
	-8.290693320731242e+000
	-5.898871997893807e-002

 271	5.072191964444947e+000
	-8.261198960741556e+000
	-8.231704600577130e+000
	5.898872032885194e-002

 272	5.092191964444947e+000
	-8.261198960741339e+000
	-8.290693320679438e+000
	-5.898871987619714e-002

 273	5.112191964444946e+000
	-8.261198960738840e+000
	-8.231704600625786e+000
	5.898872022610746e-002

 274	5.132191964444946e+000
	-8.261198960738625e+000
	-8.290693320625351e+000
	-5.898871977345266e-002

 275	5.152191964444945e+000
	-8.261198960736126e+000
	-8.231704600674442e+000
	5.898872012336653e-002

 276	5.172191964444945e+000
	-8.261198960735909e+000
	-8.290693320571265e+000
	-5.898871967071173e-002

 277	5.192191964444945e+000
	-8.261198960731127e+000
	-8.231704600720816e+000
	5.898872002062205e-002

 278	5.212191964444944e+000
	-8.261198960730912e+000
	-8.290693320514896e+000
	-5.898871956796725e-002

 279	5.232191964444944e+000
	-8.261198960730695e+000
	-8.231704600771755e+000
	5.898871991788113e-002

 280	5.252191964444943e+000
	-8.261198960728196e+000
	-8.290693320460809e+000
	-5.898871946522633e-002

 281	5.272191964444943e+000
	-8.261198960727979e+000
	-8.231704600820411e+000
	5.898871981513665e-002

 282	5.292191964444942e+000
	-8.261198960727763e+000
	-8.290693320409003e+000
	-5.898871936248185e-002

 283	5.312191964444942e+000
	-8.261198960725265e+000
	-8.231704600869067e+000
	5.898871971239572e-002

 284	5.332191964444942e+000
	-8.261198960725048e+000
	-8.290693320354919e+000
	-5.898871925974092e-002

 285	5.352191964444941e+000
	-8.261198960724832e+000
	-8.231704600920006e+000
	5.898871960965124e-002

 286	5.372191964444941e+000
	-8.261198960720050e+000
	-8.290693320298548e+000
	-5.898871915699644e-002

 287	5.392191964444940e+000
	-8.261198960719835e+000
	-8.231704600966380e+000
	5.898871950691031e-002

 288	5.412191964444940e+000
	-8.261198960717335e+000
	-8.290693320244463e+000
	-5.898871905425551e-002
